[ moleculetype ]
; Name        nrexcl
Protein_chain_X  3

 [ atoms ]
;   nr       type  resnr residue  atom   cgnr     charge       mass  typeB    chargeB      massB
     1          HC      1    ACE   HH31      1   0.112300     1.0080
     2          CT      1    ACE    CH3      2  -0.366200    12.0100
     3          HC      1    ACE   HH32      3   0.112300     1.0080
     4          HC      1    ACE   HH33      4   0.112300     1.0080
     5           C      1    ACE      C      5   0.597200    12.0100
     6           O      1    ACE      O      6  -0.567900    16.0000
     7           N      2    GLY      N      7  -0.415700    14.0100
     8           H      2    GLY      H      8   0.271900     1.0080
     9          CT      2    GLY     CA      9  -0.025200    12.0100
    10          H1      2    GLY    HA1     10   0.069800     1.0080
    11          H1      2    GLY    HA2     11   0.069800     1.0080
    12           C      2    GLY      C     12   0.597300    12.0100
    13           O      2    GLY      O     13  -0.567900    16.0000
    14           N      3    A2Y      N     14  -0.415700    14.0100
    15           H      3    A2Y      H     15   0.271900     1.0080
    16          CT      3    A2Y     CA     16   0.033700    12.0100          CT  -0.001400    12.0100
    17          H1      3    A2Y     HA     17   0.082300     1.0080          H1   0.087600     1.0080
    18          CT      3    A2Y     CB     18  -0.182500    12.0100          CT  -0.015200    12.0100
    19          HC      3    A2Y    HB1     19   0.060300     1.0080      DUM_HC   0.000000     1.0000
    20          HC      3    A2Y    HB2     20   0.060300     1.0080      DUM_HC   0.000000     1.0000
    21          HC      3    A2Y    HB3     21   0.060300     1.0080      DUM_HC   0.000000     1.0000
    22           C      3    A2Y      C     22   0.597300    12.0100
    23           O      3    A2Y      O     23  -0.567900    16.0000
    24      DUM_HC      3    A2Y   DHB1     24   0.000000     1.0000          HC   0.029500     1.0080
    25      DUM_HC      3    A2Y   DHB2     25   0.000000     1.0000          HC   0.029500     1.0080
    26      DUM_CA      3    A2Y    DCG     26   0.000000     1.0000          CA  -0.001100    12.0100
    27      DUM_CA      3    A2Y   DCD1     27   0.000000     1.0000          CA  -0.190600    12.0100
    28      DUM_HA      3    A2Y   DHD1     28   0.000000     1.0000          HA   0.169900     1.0080
    29      DUM_CA      3    A2Y   DCD2     29   0.000000     1.0000          CA  -0.190600    12.0100
    30      DUM_HA      3    A2Y   DHD2     30   0.000000     1.0000          HA   0.169900     1.0080
    31      DUM_CA      3    A2Y   DCE1     31   0.000000     1.0000          CA  -0.234100    12.0100
    32      DUM_HA      3    A2Y   DHE1     32   0.000000     1.0000          HA   0.165600     1.0080
    33      DUM_CA      3    A2Y   DCE2     33   0.000000     1.0000          CA  -0.234100    12.0100
    34      DUM_HA      3    A2Y   DHE2     34   0.000000     1.0000          HA   0.165600     1.0080
    35       DUM_C      3    A2Y    DCZ     35   0.000000     1.0000           C   0.322600    12.0100
    36      DUM_OH      3    A2Y    DOH     36   0.000000     1.0000          OH  -0.557900    16.0000
    37      DUM_HO      3    A2Y    DHH     37   0.000000     1.0000          HO   0.399200     1.0080
    38           N      4    GLY      N     38  -0.415700    14.0100
    39           H      4    GLY      H     39   0.271900     1.0080
    40          CT      4    GLY     CA     40  -0.025200    12.0100
    41          H1      4    GLY    HA1     41   0.069800     1.0080
    42          H1      4    GLY    HA2     42   0.069800     1.0080
    43           C      4    GLY      C     43   0.597300    12.0100
    44           O      4    GLY      O     44  -0.567900    16.0000
    45           N      5    NME      N     45  -0.415700    14.0100
    46           H      5    NME      H     46   0.271900     1.0080
    47          CT      5    NME    CH3     47  -0.149000    12.0100
    48          H1      5    NME   HH31     48   0.097600     1.0080
    49          H1      5    NME   HH32     49   0.097600     1.0080
    50          H1      5    NME   HH33     50   0.097600     1.0080

 [ bonds ]
;  ai    aj funct            c0            c1            c2            c3
     1      2      1
     2      3      1
     2      4      1
     2      5      1
     5      6      1
     5      7      1
     7      8      1
     7      9      1
     9     10      1
     9     11      1
     9     12      1
    12     13      1
    12     14      1       0.133500  410032.000000       0.133500  410032.000000
    14     15      1       0.101000  363171.200000       0.101000  363171.200000
    14     16      1       0.144900  282001.600000       0.144900  282001.600000
    16     17      1       0.109000  284512.000000       0.109000  284512.000000
    16     18      1       0.152600  259408.000000       0.152600  259408.000000
    16     22      1       0.152200  265265.600000       0.152200  265265.600000
    18     19      1       0.109000  284512.000000       0.109000  284512.000000
    18     20      1       0.109000  284512.000000       0.109000  284512.000000
    18     21      1       0.109000  284512.000000       0.109000  284512.000000
    18     24      1       0.109000  284512.000000       0.109000  284512.000000
    18     25      1       0.109000  284512.000000       0.109000  284512.000000
    18     26      1       0.151000  265265.600000       0.151000  265265.600000
    22     23      1       0.122900  476976.000000       0.122900  476976.000000
    22     38      1       0.133500  410032.000000       0.133500  410032.000000
    26     27      1       0.140000  392459.200000       0.140000  392459.200000
    26     29      1       0.140000  392459.200000       0.140000  392459.200000
    27     28      1       0.108000  307105.600000       0.108000  307105.600000
    27     31      1       0.140000  392459.200000       0.140000  392459.200000
    29     30      1       0.108000  307105.600000       0.108000  307105.600000
    29     33      1       0.140000  392459.200000       0.140000  392459.200000
    31     32      1       0.108000  307105.600000       0.108000  307105.600000
    31     35      1       0.140900  392459.200000       0.140900  392459.200000
    33     34      1       0.108000  307105.600000       0.108000  307105.600000
    33     35      1       0.140900  392459.200000       0.140900  392459.200000
    35     36      1       0.136400  376560.000000       0.136400  376560.000000
    36     37      1       0.096000  462750.400000       0.096000  462750.400000
    38     39      1
    38     40      1
    40     41      1
    40     42      1
    40     43      1
    43     44      1
    43     45      1
    45     46      1
    45     47      1
    47     48      1
    47     49      1
    47     50      1

 [ pairs ]
;  ai    aj funct            c0            c1            c2            c3
     1      6      1
     1      7      1
     2      8      1
     2      9      1
     3      6      1
     3      7      1
     4      6      1
     4      7      1
     5     10      1
     5     11      1
     5     12      1
     6      8      1
     6      9      1
     7     13      1
     7     14      1
     8     10      1
     8     11      1
     8     12      1
     9     15      1
     9     16      1
    10     13      1
    10     14      1
    11     13      1
    11     14      1
    12     17      1
    12     18      1
    12     22      1
    13     15      1
    13     16      1
    14     19      1
    14     20      1
    14     21      1
    14     23      1
    14     24      1
    14     25      1
    14     26      1
    14     38      1
    15     17      1
    15     18      1
    15     22      1
    16     27      1
    16     29      1
    16     39      1
    16     40      1
    17     19      1
    17     20      1
    17     21      1
    17     23      1
    17     24      1
    17     25      1
    17     26      1
    17     38      1
    18     23      1
    18     28      1
    18     30      1
    18     31      1
    18     33      1
    18     38      1
    19     22      1
    19     27      1
    19     29      1
    20     22      1
    20     27      1
    20     29      1
    21     22      1
    21     27      1
    21     29      1
    22     24      1
    22     25      1
    22     26      1
    22     41      1
    22     42      1
    22     43      1
    23     39      1
    23     40      1
    24     27      1
    24     29      1
    25     27      1
    25     29      1
    26     32      1
    26     34      1
    26     35      1
    27     30      1
    27     33      1
    27     36      1
    28     29      1
    28     32      1
    28     35      1
    29     31      1
    29     36      1
    30     34      1
    30     35      1
    31     34      1
    31     37      1
    32     33      1
    32     36      1
    33     37      1
    34     36      1
    38     44      1
    38     45      1
    39     41      1
    39     42      1
    39     43      1
    40     46      1
    40     47      1
    41     44      1
    41     45      1
    42     44      1
    42     45      1
    43     48      1
    43     49      1
    43     50      1
    44     46      1
    44     47      1
    46     48      1
    46     49      1
    46     50      1

 [ angles ]
;  ai    aj    ak funct            c0            c1            c2            c3
     1      2      3      1
     1      2      4      1
     1      2      5      1
     3      2      4      1
     3      2      5      1
     4      2      5      1
     2      5      6      1
     2      5      7      1
     6      5      7      1
     5      7      8      1
     5      7      9      1
     8      7      9      1
     7      9     10      1
     7      9     11      1
     7      9     12      1
    10      9     11      1
    10      9     12      1
    11      9     12      1
     9     12     13      1
     9     12     14      1     116.600000     585.760000     116.600000     585.760000 ; CA C N
    13     12     14      1     122.900000     669.440000     122.900000     669.440000 ; O C N
    12     14     15      1     120.000000     418.400000     120.000000     418.400000 ; C N H
    12     14     16      1     121.900000     418.400000     121.900000     418.400000 ; C N CA
    15     14     16      1     118.040000     418.400000     118.040000     418.400000 ; H N CA
    14     16     17      1     109.500000     418.400000     109.500000     418.400000 ; N CA HA
    14     16     18      1     109.700000     669.440000     109.700000     669.440000 ; N CA CB
    14     16     22      1     110.100000     527.184000     110.100000     527.184000 ; N CA C
    17     16     18      1     109.500000     418.400000     109.500000     418.400000 ; HA CA CB
    17     16     22      1     109.500000     418.400000     109.500000     418.400000 ; HA CA C
    18     16     22      1     111.100000     527.184000     111.100000     527.184000 ; CB CA C
    16     18     19      1     109.500000     418.400000     109.500000     418.400000 ; CA CB HB1
    16     18     20      1     109.500000     418.400000     109.500000     418.400000 ; CA CB HB2
    16     18     21      1     109.500000     418.400000     109.500000     418.400000 ; CA CB HB3
    16     18     24      1     109.500000     418.400000     109.500000     418.400000 ; CA CB DHB1
    16     18     25      1     109.500000     418.400000     109.500000     418.400000 ; CA CB DHB2
    16     18     26      1     114.000000     527.184000     114.000000     527.184000 ; CA CB DCG
    19     18     20      1     109.500000     292.880000     109.500000     292.880000 ; HB1 CB HB2
    19     18     21      1     109.500000     292.880000     109.500000     292.880000 ; HB1 CB HB3
    19     18     24      1       0.000000       0.000000       0.000000       0.000000 ; HB1 CB DHB1
    19     18     25      1       0.000000       0.000000       0.000000       0.000000 ; HB1 CB DHB2
    19     18     26      1       0.000000       0.000000       0.000000       0.000000 ; HB1 CB DCG
    20     18     21      1     109.500000     292.880000     109.500000     292.880000 ; HB2 CB HB3
    20     18     24      1       0.000000       0.000000       0.000000       0.000000 ; HB2 CB DHB1
    20     18     25      1       0.000000       0.000000       0.000000       0.000000 ; HB2 CB DHB2
    20     18     26      1       0.000000       0.000000       0.000000       0.000000 ; HB2 CB DCG
    21     18     24      1       0.000000       0.000000       0.000000       0.000000 ; HB3 CB DHB1
    21     18     25      1       0.000000       0.000000       0.000000       0.000000 ; HB3 CB DHB2
    21     18     26      1       0.000000       0.000000       0.000000       0.000000 ; HB3 CB DCG
    24     18     25      1     109.500000     292.880000     109.500000     292.880000 ; DHB1 CB DHB2
    24     18     26      1     109.500000     418.400000     109.500000     418.400000 ; DHB1 CB DCG
    25     18     26      1     109.500000     418.400000     109.500000     418.400000 ; DHB2 CB DCG
    16     22     23      1     120.400000     669.440000     120.400000     669.440000 ; CA C O
    16     22     38      1     116.600000     585.760000     116.600000     585.760000 ; CA C N
    23     22     38      1     122.900000     669.440000     122.900000     669.440000 ; O C N
    18     26     27      1     120.000000     585.760000     120.000000     585.760000 ; CB DCG DCD1
    18     26     29      1     120.000000     585.760000     120.000000     585.760000 ; CB DCG DCD2
    27     26     29      1     120.000000     527.184000     120.000000     527.184000 ; DCD1 DCG DCD2
    26     27     28      1     120.000000     418.400000     120.000000     418.400000 ; DCG DCD1 DHD1
    26     27     31      1     120.000000     527.184000     120.000000     527.184000 ; DCG DCD1 DCE1
    28     27     31      1     120.000000     418.400000     120.000000     418.400000 ; DHD1 DCD1 DCE1
    26     29     30      1     120.000000     418.400000     120.000000     418.400000 ; DCG DCD2 DHD2
    26     29     33      1     120.000000     527.184000     120.000000     527.184000 ; DCG DCD2 DCE2
    30     29     33      1     120.000000     418.400000     120.000000     418.400000 ; DHD2 DCD2 DCE2
    27     31     32      1     120.000000     418.400000     120.000000     418.400000 ; DCD1 DCE1 DHE1
    27     31     35      1     120.000000     527.184000     120.000000     527.184000 ; DCD1 DCE1 DCZ
    32     31     35      1     120.000000     418.400000     120.000000     418.400000 ; DHE1 DCE1 DCZ
    29     33     34      1     120.000000     418.400000     120.000000     418.400000 ; DCD2 DCE2 DHE2
    29     33     35      1     120.000000     527.184000     120.000000     527.184000 ; DCD2 DCE2 DCZ
    34     33     35      1     120.000000     418.400000     120.000000     418.400000 ; DHE2 DCE2 DCZ
    31     35     33      1     120.000000     527.184000     120.000000     527.184000 ; DCE1 DCZ DCE2
    31     35     36      1     120.000000     585.760000     120.000000     585.760000 ; DCE1 DCZ DOH
    33     35     36      1     120.000000     585.760000     120.000000     585.760000 ; DCE2 DCZ DOH
    35     36     37      1     113.000000     418.400000     113.000000     418.400000 ; DCZ DOH DHH
    22     38     39      1     120.000000     418.400000     120.000000     418.400000 ; C N H
    22     38     40      1     121.900000     418.400000     121.900000     418.400000 ; C N CA
    39     38     40      1
    38     40     41      1
    38     40     42      1
    38     40     43      1
    41     40     42      1
    41     40     43      1
    42     40     43      1
    40     43     44      1
    40     43     45      1
    44     43     45      1
    43     45     46      1
    43     45     47      1
    46     45     47      1
    45     47     48      1
    45     47     49      1
    45     47     50      1
    48     47     49      1
    48     47     50      1
    49     47     50      1

 [ dihedrals ]
;  ai    aj    ak    al funct            c0            c1            c2            c3            c4            c5
     1      2      5      6    9 
     1      2      5      7    9 
     3      2      5      6    9 
     3      2      5      7    9 
     4      2      5      6    9 
     4      2      5      7    9 
     2      5      7      8    9 
     2      5      7      9    9 
     6      5      7      8    9 
     6      5      7      9    9 
     5      7      9     10    9 
     5      7      9     11    9 
     5      7      9     12    9 
     8      7      9     10    9 
     8      7      9     11    9 
     8      7      9     12    9 
     7      9     12     13    9 
     7      9     12     14    9 
    10      9     12     13    9 
    10      9     12     14    9 
    11      9     12     13    9 
    11      9     12     14    9 
     9     12     14     15    9 
     9     12     14     16    9 180 10.46 2 180 0 2 ; CA C N CA CT C N CT (AAAA->AAAA)
    13     12     14     15    9 
    13     12     14     16    9 180 10.46 2 180 0 2 ; O C N CA O C N CT (AAAA->AAAA)
    12     14     16     17    9 0 0 0 0 0 0 ; C N CA HA C N CT H1 (AAAA->AAAA)
    12     14     16     18    9 0 8.368 1 0 0 1 ; C N CA CB C N CT CT (AAAA->AAAA)
    12     14     16     22    9 0 1.12968 2 0 0 2 ; C N CA C C N CT C (AAAA->AAAA)
    15     14     16     17    9 0 0 0 0 0 0 ; H N CA HA H N CT H1 (AAAA->AAAA)
    15     14     16     18    9 0 0 0 0 0 0 ; H N CA CB H N CT CT (AAAA->AAAA)
    15     14     16     22    9 0 0 0 0 0 0 ; H N CA C H N CT C (AAAA->AAAA)
    14     16     18     19    9 0 0.65084 3 0 0.65084 3 ; N CA CB HB1 N CT CT HC (AAAA->AAAD)
    14     16     18     20    9 0 0.65084 3 0 0.65084 3 ; N CA CB HB2 N CT CT HC (AAAA->AAAD)
    14     16     18     21    9 0 0.65084 3 0 0.65084 3 ; N CA CB HB3 N CT CT HC (AAAA->AAAD)
    14     16     18     24    9 0 0.65084 3 0 0.65084 3 ; N CA CB DHB1 N CT CT DUM_HC (AAAD->AAAA)
    14     16     18     25    9 0 0.65084 3 0 0.65084 3 ; N CA CB DHB2 N CT CT DUM_HC (AAAD->AAAA)
    14     16     18     26    9 0 0.65084 3 0 0.65084 3 ; N CA CB DCG N CT CT DUM_CA (AAAD->AAAA)
    17     16     18     19    9 0 0.65084 3 0 0.65084 3 ; HA CA CB HB1 H1 CT CT HC (AAAA->AAAD)
    17     16     18     20    9 0 0.65084 3 0 0.65084 3 ; HA CA CB HB2 H1 CT CT HC (AAAA->AAAD)
    17     16     18     21    9 0 0.65084 3 0 0.65084 3 ; HA CA CB HB3 H1 CT CT HC (AAAA->AAAD)
    17     16     18     24    9 0 0.65084 3 0 0.65084 3 ; HA CA CB DHB1 H1 CT CT DUM_HC (AAAD->AAAA)
    17     16     18     25    9 0 0.65084 3 0 0.65084 3 ; HA CA CB DHB2 H1 CT CT DUM_HC (AAAD->AAAA)
    17     16     18     26    9 0 0.65084 3 0 0.65084 3 ; HA CA CB DCG H1 CT CT DUM_CA (AAAD->AAAA)
    22     16     18     19    9 0 0.65084 3 0 0.65084 3 ; C CA CB HB1 C CT CT HC (AAAA->AAAD)
    22     16     18     20    9 0 0.65084 3 0 0.65084 3 ; C CA CB HB2 C CT CT HC (AAAA->AAAD)
    22     16     18     21    9 0 0.65084 3 0 0.65084 3 ; C CA CB HB3 C CT CT HC (AAAA->AAAD)
    22     16     18     24    9 0 0.65084 3 0 0.65084 3 ; C CA CB DHB1 C CT CT DUM_HC (AAAD->AAAA)
    22     16     18     25    9 0 0.65084 3 0 0.65084 3 ; C CA CB DHB2 C CT CT DUM_HC (AAAD->AAAA)
    22     16     18     26    9 0 0.65084 3 0 0.65084 3 ; C CA CB DCG C CT CT DUM_CA (AAAD->AAAA)
    14     16     22     23    9 0 0 0 0 0 0 ; N CA C O N CT C O (AAAA->AAAA)
    14     16     22     38    9 180 1.8828 1 180 0 1 ; N CA C N N CT C N (AAAA->AAAA)
    17     16     22     23    9 0 3.3472 1 0 0 1 ; HA CA C O H1 CT C O (AAAA->AAAA)
    17     16     22     38    9 0 0 0 0 0 0 ; HA CA C N H1 CT C N (AAAA->AAAA)
    18     16     22     23    9 0 0 0 0 0 0 ; CB CA C O CT CT C O (AAAA->AAAA)
    18     16     22     38    9 0 0.8368 1 0 0 1 ; CB CA C N CT CT C N (AAAA->AAAA)
    16     18     26     27    9 0 0 0 0 0 0 ; CA CB DCG DCD1 CT CT DUM_CA DUM_CA (AADD->AAAA)
    16     18     26     29    9 0 0 0 0 0 0 ; CA CB DCG DCD2 CT CT DUM_CA DUM_CA (AADD->AAAA)
    19     18     26     27    9 0 0 0 0 0 0 ; HB1 CB DCG DCD1 HC CT DUM_CA DUM_CA (AADD->DAAA)
    19     18     26     29    9 0 0 0 0 0 0 ; HB1 CB DCG DCD2 HC CT DUM_CA DUM_CA (AADD->DAAA)
    20     18     26     27    9 0 0 0 0 0 0 ; HB2 CB DCG DCD1 HC CT DUM_CA DUM_CA (AADD->DAAA)
    20     18     26     29    9 0 0 0 0 0 0 ; HB2 CB DCG DCD2 HC CT DUM_CA DUM_CA (AADD->DAAA)
    21     18     26     27    9 0 0 0 0 0 0 ; HB3 CB DCG DCD1 HC CT DUM_CA DUM_CA (AADD->DAAA)
    21     18     26     29    9 0 0 0 0 0 0 ; HB3 CB DCG DCD2 HC CT DUM_CA DUM_CA (AADD->DAAA)
    24     18     26     27    9 0 0 0 0 0 0 ; DHB1 CB DCG DCD1 DUM_HC CT DUM_CA DUM_CA (DADD->AAAA)
    24     18     26     29    9 0 0 0 0 0 0 ; DHB1 CB DCG DCD2 DUM_HC CT DUM_CA DUM_CA (DADD->AAAA)
    25     18     26     27    9 0 0 0 0 0 0 ; DHB2 CB DCG DCD1 DUM_HC CT DUM_CA DUM_CA (DADD->AAAA)
    25     18     26     29    9 0 0 0 0 0 0 ; DHB2 CB DCG DCD2 DUM_HC CT DUM_CA DUM_CA (DADD->AAAA)
    16     22     38     39    9 180 10.46 2 180 0 2 ; CA C N H CT C N H (AAAA->AAAA)
    16     22     38     40    9 180 10.46 2 180 0 2 ; CA C N CA CT C N CT (AAAA->AAAA)
    23     22     38     39    9 
    23     22     38     40    9 
    18     26     27     28    9 180 15.167 2 180 15.167 2 ; CB DCG DCD1 DHD1 CT DUM_CA DUM_CA DUM_HA (ADDD->AAAA)
    18     26     27     31    9 180 15.167 2 180 15.167 2 ; CB DCG DCD1 DCE1 CT DUM_CA DUM_CA DUM_CA (ADDD->AAAA)
    29     26     27     28    9 180 15.167 2 180 15.167 2 ; DCD2 DCG DCD1 DHD1 DUM_CA DUM_CA DUM_CA DUM_HA (DDDD->AAAA)
    29     26     27     31    9 180 15.167 2 180 15.167 2 ; DCD2 DCG DCD1 DCE1 DUM_CA DUM_CA DUM_CA DUM_CA (DDDD->AAAA)
    18     26     29     30    9 180 15.167 2 180 15.167 2 ; CB DCG DCD2 DHD2 CT DUM_CA DUM_CA DUM_HA (ADDD->AAAA)
    18     26     29     33    9 180 15.167 2 180 15.167 2 ; CB DCG DCD2 DCE2 CT DUM_CA DUM_CA DUM_CA (ADDD->AAAA)
    27     26     29     30    9 180 15.167 2 180 15.167 2 ; DCD1 DCG DCD2 DHD2 DUM_CA DUM_CA DUM_CA DUM_HA (DDDD->AAAA)
    27     26     29     33    9 180 15.167 2 180 15.167 2 ; DCD1 DCG DCD2 DCE2 DUM_CA DUM_CA DUM_CA DUM_CA (DDDD->AAAA)
    26     27     31     32    9 180 15.167 2 180 15.167 2 ; DCG DCD1 DCE1 DHE1 DUM_CA DUM_CA DUM_CA DUM_HA (DDDD->AAAA)
    26     27     31     35    9 180 15.167 2 180 15.167 2 ; DCG DCD1 DCE1 DCZ DUM_CA DUM_CA DUM_CA DUM_C (DDDD->AAAA)
    28     27     31     32    9 180 15.167 2 180 15.167 2 ; DHD1 DCD1 DCE1 DHE1 DUM_HA DUM_CA DUM_CA DUM_HA (DDDD->AAAA)
    28     27     31     35    9 180 15.167 2 180 15.167 2 ; DHD1 DCD1 DCE1 DCZ DUM_HA DUM_CA DUM_CA DUM_C (DDDD->AAAA)
    26     29     33     34    9 180 15.167 2 180 15.167 2 ; DCG DCD2 DCE2 DHE2 DUM_CA DUM_CA DUM_CA DUM_HA (DDDD->AAAA)
    26     29     33     35    9 180 15.167 2 180 15.167 2 ; DCG DCD2 DCE2 DCZ DUM_CA DUM_CA DUM_CA DUM_C (DDDD->AAAA)
    30     29     33     34    9 180 15.167 2 180 15.167 2 ; DHD2 DCD2 DCE2 DHE2 DUM_HA DUM_CA DUM_CA DUM_HA (DDDD->AAAA)
    30     29     33     35    9 180 15.167 2 180 15.167 2 ; DHD2 DCD2 DCE2 DCZ DUM_HA DUM_CA DUM_CA DUM_C (DDDD->AAAA)
    27     31     35     33    9 180 15.167 2 180 15.167 2 ; DCD1 DCE1 DCZ DCE2 DUM_CA DUM_CA DUM_C DUM_CA (DDDD->AAAA)
    27     31     35     36    9 180 15.167 2 180 15.167 2 ; DCD1 DCE1 DCZ DOH DUM_CA DUM_CA DUM_C DUM_OH (DDDD->AAAA)
    32     31     35     33    9 180 15.167 2 180 15.167 2 ; DHE1 DCE1 DCZ DCE2 DUM_HA DUM_CA DUM_C DUM_CA (DDDD->AAAA)
    32     31     35     36    9 180 15.167 2 180 15.167 2 ; DHE1 DCE1 DCZ DOH DUM_HA DUM_CA DUM_C DUM_OH (DDDD->AAAA)
    29     33     35     31    9 180 15.167 2 180 15.167 2 ; DCD2 DCE2 DCZ DCE1 DUM_CA DUM_CA DUM_C DUM_CA (DDDD->AAAA)
    29     33     35     36    9 180 15.167 2 180 15.167 2 ; DCD2 DCE2 DCZ DOH DUM_CA DUM_CA DUM_C DUM_OH (DDDD->AAAA)
    34     33     35     31    9 180 15.167 2 180 15.167 2 ; DHE2 DCE2 DCZ DCE1 DUM_HA DUM_CA DUM_C DUM_CA (DDDD->AAAA)
    34     33     35     36    9 180 15.167 2 180 15.167 2 ; DHE2 DCE2 DCZ DOH DUM_HA DUM_CA DUM_C DUM_OH (DDDD->AAAA)
    31     35     36     37    9 180 9.6232 2 180 9.6232 2 ; DCE1 DCZ DOH DHH DUM_CA DUM_C DUM_OH DUM_HO (DDDD->AAAA)
    33     35     36     37    9 180 9.6232 2 180 9.6232 2 ; DCE2 DCZ DOH DHH DUM_CA DUM_C DUM_OH DUM_HO (DDDD->AAAA)
    22     38     40     41    9 
    22     38     40     42    9 
    22     38     40     43    9 
    39     38     40     41    9 
    39     38     40     42    9 
    39     38     40     43    9 
    38     40     43     44    9 
    38     40     43     45    9 
    41     40     43     44    9 
    41     40     43     45    9 
    42     40     43     44    9 
    42     40     43     45    9 
    40     43     45     46    9 
    40     43     45     47    9 
    44     43     45     46    9 
    44     43     45     47    9 
    43     45     47     48    9 
    43     45     47     49    9 
    43     45     47     50    9 
    46     45     47     48    9 
    46     45     47     49    9 
    46     45     47     50    9 
     2      7      5      6    4 
     5      9      7      8    4 
     9     14     12     13    4 
    12     16     14     15    4 180 4.6024 2 180 0 2 ; C CA N H C CT N H (AAAA->AAAA)
    14     16     22     38    4 105.4 0.75 1 105.4 0 1 ; N CA C N N CT C N (AAAA->AAAA)
    16     38     22     23    4 180 43.932 2 180 0 2 ; CA N C O CT N C O (AAAA->AAAA)
    18     26     29     27    4 180 4.6024 2 180 0 2 ; CB DCG DCD2 DCD1 CT DUM_CA DUM_CA DUM_CA (ADDD->AAAA)
    22     40     38     39    4 
    26     31     27     28    4 180 4.6024 2 180 0 2 ; DCG DCE1 DCD1 DHD1 DUM_CA DUM_CA DUM_CA DUM_HA (DDDD->AAAA)
    26     33     29     30    4 180 4.6024 2 180 0 2 ; DCG DCE2 DCD2 DHD2 DUM_CA DUM_CA DUM_CA DUM_HA (DDDD->AAAA)
    27     35     31     32    4 180 4.6024 2 180 0 2 ; DCD1 DCZ DCE1 DHE1 DUM_CA DUM_C DUM_CA DUM_HA (DDDD->AAAA)
    31     33     35     36    4 180 4.6024 2 180 0 2 ; DCE1 DCE2 DCZ DOH DUM_CA DUM_CA DUM_C DUM_OH (DDDD->AAAA)
    34     33     29     35    4 180 4.6024 2 180 0 2 ; DHE2 DCE2 DCD2 DCZ DUM_HA DUM_CA DUM_CA DUM_C (DDDD->AAAA)
    40     45     43     44    4 
    43     47     45     46    4 
    12     16     14     15    4 180 0 2 180 4.6024 2 ; C CA N H C CT N H (AAAA->AAAA)
    16     38     22     23    4 180 0 2 180 43.932 2 ; CA N C O CT N C O (AAAA->AAAA)
    14     16     22     38    4 105.4 0 1 105.4 0.75 1 ; N CA C N N CT C N (AAAA->AAAA)
    26     33     29     30    4 180 0 2 180 4.6024 2 ; DCG DCE2 DCD2 DHD2 DUM_CA DUM_CA DUM_CA DUM_HA (DDDD->AAAA)
    34     33     29     35    4 180 0 2 180 4.6024 2 ; DHE2 DCE2 DCD2 DCZ DUM_HA DUM_CA DUM_CA DUM_C (DDDD->AAAA)
    27     35     31     32    4 180 0 2 180 4.6024 2 ; DCD1 DCZ DCE1 DHE1 DUM_CA DUM_C DUM_CA DUM_HA (DDDD->AAAA)
    26     31     27     28    4 180 0 2 180 4.6024 2 ; DCG DCE1 DCD1 DHD1 DUM_CA DUM_CA DUM_CA DUM_HA (DDDD->AAAA)
    18     26     29     27    4 180 0 2 180 4.6024 2 ; CB DCG DCD2 DCD1 CT DUM_CA DUM_CA DUM_CA (ADDD->AAAA)
    31     33     35     36    4 180 0 2 180 4.6024 2 ; DCE1 DCE2 DCZ DOH DUM_CA DUM_CA DUM_C DUM_OH (DDDD->AAAA)
     9     12     14     16    9 180 0 2 180 10.46 2 ; CA C N CA CT C N CT (AAAA->AAAA)
    13     12     14     16    9 180 0 2 180 10.46 2 ; O C N CA O C N CT (AAAA->AAAA)
    12     14     16     17    9 0 0 0 0 0 0 ; C N CA HA C N CT H1 (AAAA->AAAA)
    12     14     16     18    9 0 8.368 2 0 0 2 ; C N CA CB C N CT CT (AAAA->AAAA)
    12     14     16     18    9 0 1.6736 3 0 0 3 ; C N CA CB C N CT CT (AAAA->AAAA)
    12     14     16     18    9 0 0 1 0 8.368 1 ; C N CA CB C N CT CT (AAAA->AAAA)
    12     14     16     18    9 0 0 2 0 8.368 2 ; C N CA CB C N CT CT (AAAA->AAAA)
    12     14     16     18    9 0 0 3 0 1.6736 3 ; C N CA CB C N CT CT (AAAA->AAAA)
    12     14     16     22    9 0 1.75728 3 0 0 3 ; C N CA C C N CT C (AAAA->AAAA)
    12     14     16     22    9 0 0 2 0 1.12968 2 ; C N CA C C N CT C (AAAA->AAAA)
    12     14     16     22    9 0 0 3 0 1.75728 3 ; C N CA C C N CT C (AAAA->AAAA)
    15     14     16     17    9 0 0 0 0 0 0 ; H N CA HA H N CT H1 (AAAA->AAAA)
    15     14     16     18    9 0 0 0 0 0 0 ; H N CA CB H N CT CT (AAAA->AAAA)
    15     14     16     22    9 0 0 0 0 0 0 ; H N CA C H N CT C (AAAA->AAAA)
    14     16     22     23    9 0 0 0 0 0 0 ; N CA C O N CT C O (AAAA->AAAA)
    14     16     22     38    9 180 6.61072 2 180 0 2 ; N CA C N N CT C N (AAAA->AAAA)
    14     16     22     38    9 180 2.3012 3 180 0 3 ; N CA C N N CT C N (AAAA->AAAA)
    14     16     22     38    9 180 0 1 180 1.8828 1 ; N CA C N N CT C N (AAAA->AAAA)
    14     16     22     38    9 180 0 2 180 6.61072 2 ; N CA C N N CT C N (AAAA->AAAA)
    14     16     22     38    9 180 0 3 180 2.3012 3 ; N CA C N N CT C N (AAAA->AAAA)
    17     16     22     23    9 180 0.33472 3 180 0 3 ; HA CA C O H1 CT C O (AAAA->AAAA)
    17     16     22     23    9 0 0 1 0 3.3472 1 ; HA CA C O H1 CT C O (AAAA->AAAA)
    17     16     22     23    9 180 0 3 180 0.33472 3 ; HA CA C O H1 CT C O (AAAA->AAAA)
    17     16     22     38    9 0 0 0 0 0 0 ; HA CA C N H1 CT C N (AAAA->AAAA)
    18     16     22     23    9 0 0 0 0 0 0 ; CB CA C O CT CT C O (AAAA->AAAA)
    18     16     22     38    9 0 0.8368 2 0 0 2 ; CB CA C N CT CT C N (AAAA->AAAA)
    18     16     22     38    9 0 1.6736 3 0 0 3 ; CB CA C N CT CT C N (AAAA->AAAA)
    18     16     22     38    9 0 0 1 0 0.8368 1 ; CB CA C N CT CT C N (AAAA->AAAA)
    18     16     22     38    9 0 0 2 0 0.8368 2 ; CB CA C N CT CT C N (AAAA->AAAA)
    18     16     22     38    9 0 0 3 0 1.6736 3 ; CB CA C N CT CT C N (AAAA->AAAA)
    16     22     38     39    9 180 0 2 180 10.46 2 ; CA C N H CT C N H (AAAA->AAAA)
    16     22     38     40    9 180 0 2 180 10.46 2 ; CA C N CA CT C N CT (AAAA->AAAA)

 [ cmap ]
;  ai    aj    ak    al    am funct
